 # 111  4  Ta 22 Ti 23 V 73 W 74   -1327.46990162  -0.20147154  -0.20147154
 
         128  atoms
           4  atom types
 
      0.000000000000      12.688683780184  xlo xhi
      0.000000000000      12.718426058676  ylo yhi
      0.000000000000      12.683789578769  zlo zhi
     -0.066728883193       0.064112347783       0.008391835909  xy xz yz
 
Masses
 
            1   180.94788000            # Ta
            2   47.86700000             # Ti
            3   50.94150000             # V
            4   183.84000000            # W
 
Atoms # atomic
 
         1    1        0.077127645726       6.378853612628       9.500596184326
         2    1       11.092242445433       4.708958105132       1.606168526035
         3    1       11.109489817555       7.950111478685       4.743193264874
         4    1       11.053585266381      11.178837400091       4.778806978260
         5    1       11.141673881974       1.513758482359       8.029281040612
         6    1       11.094230054673       4.732088925083       7.979306704365
         7    1        9.522129061548       3.145409043036       6.354055600785
         8    1       11.073178073664       7.977943887250       7.823945670286
         9    1        6.312137285253       3.097830950939       3.204777237465
        10    1        4.710736101653       4.715716901566       1.584010676552
        11    1        6.318705910981       9.578577718695       3.132877015551
        12    1        3.145401593785       6.362510921053      -0.027876563546
        13    1       11.128955852613       4.667885645439      11.144970622668
        14    1        9.578497038357       9.594721820932       9.538670723028
        15    1        6.313983185681       9.538502332041       6.304562587863
        16    1        3.168936941632       9.583567225475       3.130828976405
        17    1        6.296117387945       6.441549698883       3.140151367619
        18    1       -0.159660049523       9.656795648861       0.034060229471
        19    1        0.004601937273       6.334014815760      -0.029346100233
        20    1        1.592963692741      11.150664865667       7.972376324191
        21    1        0.071308298454       3.158790453361       6.333315743195
        22    1        0.074315661130       0.020212995053       6.380806118600
        23    1        4.779242198511       4.621249872957      11.190760765705
        24    1       -0.002803989181       9.663336554872       3.118921415015
        25    1        1.556021418327       7.971306444354       4.763260208097
        26    1        1.620358241010       8.075551897958      11.109323902407
        27    1        6.343272237247       9.556588175149       9.509792771593
        28    1        7.995288254807       7.937686544608      11.103542173049
        29    1        4.704917008496       1.517760319775       7.940913617307
        30    1        6.392145618732      -0.013611880328       9.555404549041
        31    1        8.048946761349       1.620261936974      11.154254933541
        32    1        3.132836268432       6.365466000286       6.445525460256
        33    2       11.116710550981      11.459919646685      10.999543457946
        34    2        6.385739095452       3.052679380218       6.368806569652
        35    2        9.470366409499       6.310073470246       9.530470410265
        36    2        3.108823159193      -0.004907722655       0.063121734682
        37    2        4.705956578699       1.690923197837       1.489932246973
        38    2        7.903953416376       4.806794248816       4.772947109524
        39    2        6.381447498912      -0.019134030316       3.093822138096
        40    2        6.293303187547       6.401574253686       0.028771669121
        41    2        6.293504479388       9.576270117317       0.010271348721
        42    2        9.421186049905       9.592106600061       3.115098479997
        43    2        6.360529188702      -0.057122705125       0.026397682365
        44    2       11.134401134617       1.556574745084       4.652644325305
        45    2        9.512762526277       9.618791046364       0.037397919043
        46    2        8.049681010806       1.482304000792       4.737628442711
        47    2        7.929158163204       7.887151619915       7.891985316681
        48    2       11.094419597230       7.839477143110       1.642948126540
        49    2        3.108875677453       3.137554382235       3.214312958054
        50    2       -0.106464076653       9.548632743418       9.504042984650
        51    2        1.623013973595      11.160347682182      11.042726889700
        52    2        0.071682342299       6.256272052639       6.362291135452
        53    2        3.179529776993       6.336643883662       9.457326769318
        54    2        4.781440454696       4.844599311413       4.811329275642
        55    2        4.766255099802       1.701111202363      11.147267886932
        56    2        1.561079551272       1.468126051691       4.577347834034
        57    2        3.104631689568       3.208196495239       9.489660834032
        58    2        4.965475895074       4.850447447968       7.729061510701
        59    2        6.337761808207       6.314106625437       9.552889042860
        60    2        6.436364793510       3.214914641569       9.429854539786
        61    2        1.573369010267       7.951805496491       1.594782823769
        62    2        4.676323631957      11.198501431255       4.767934225559
        63    2        0.017762863745       0.050007154304       0.092578697820
        64    2        3.100715491644       3.154036627000       6.342988211899
        65    3       11.094417482676       7.869724536558      11.170718798578
        66    3        9.515664635052      -0.012492159943       9.492576026238
        67    3       11.128520882077       1.579890980859      11.137212486599
        68    3        3.229531244028       9.597106361370       0.011111109816
        69    3        4.627303939301       7.950071218338       1.590932066498
        70    3        2.987661287521       3.173753120011      -0.003543220635
        71    3       11.107183883238       1.622524319080       1.598611083053
        72    3        9.534267083483      -0.058322207794       6.409174544855
        73    3        6.463196907195       3.248663928655       0.011974547348
        74    3       11.073544945214      11.345655920921       1.678090624428
        75    3        9.507879006164       3.107095579984       0.039793955488
        76    3        9.532836302775       0.040625263026       0.023684427326
        77    3        7.952079303782       4.836242274922       7.834335647056
        78    3       11.093666987116      11.153871815612       7.892874149262
        79    3        3.149572351409      -0.024974200537       3.078355111320
        80    3        7.931883782161      11.197776653018       4.794153495423
        81    3        1.532492006502       1.607767932899       1.663184101801
        82    3        1.593384597747       4.684405112488      11.127333634258
        83    3        0.115468912427       0.060131651091       9.499538636465
        84    3        0.005347533895       9.587641983969       6.369986635315
        85    3        1.632803815053       8.084323198994       7.894248862817
        86    3        6.318348542964       6.564189241165       6.261064420527
        87    3        1.590683512888       1.483875117833       8.035029292567
        88    3        3.216974908056       0.034303063083       9.557896559442
        89    3        1.474680370842       4.671925616954       8.017157988610
        90    3        0.060308055906       3.179006855525       3.139786561755
        91    3        4.748219768125       7.979752770196       7.866786962815
        92    3        0.022852958453       0.014932198350       3.001767087329
        93    3        3.192792318406      -0.001917164923       6.328538619939
        94    3        1.502973236609      11.183184862023       1.604952177151
        95    3        4.702242374374       7.975298961169       4.771354579122
        96    3        0.011097521919       6.223921775820       3.242944808457
        97    4        8.012704847208       1.520810213032       7.926499286542
        98    4        9.520249478809       3.156538127551       9.544716993760
        99    4        4.642404748815      11.156222036994       1.589153559646
       100    4        7.918025137940       7.951101433466       4.770612126870
       101    4        9.470005190160       9.588012382274       6.316756897710
       102    4        9.497574821562       6.324390343106       6.337976467708
       103    4       11.085691403467       4.737126987852       4.711086023046
       104    4        7.939646155829       7.942140208162       1.566839954880
       105    4        7.947864630466       4.730113277081       1.605641524965
       106    4        9.474379115477       6.365133707472       3.171731186918
       107    4        8.002594635906       1.621725637730       1.543060543161
       108    4        9.544172168415       3.150987784721       3.146757716538
       109    4        6.392364727848      -0.032345680691       6.332849379108
       110    4        7.953500820463      11.196811613733       1.577508432411
       111    4        4.727504128674       1.452332617624       4.771808284615
       112    4        4.690836980885      11.144296835053       7.879825594916
       113    4        3.144912682276       6.360902386272       3.189315591608
       114    4        1.532203343613       4.727723346276       1.587953088696
       115    4       -0.012020451037       3.075609662903       0.032183821088
       116    4        7.979176368315       4.727021322338      11.159574089621
       117    4        8.015094008760      11.202776236788      11.093601629537
       118    4        1.575042493883       4.761998022963       4.711053442295
       119    4        3.171967371365       9.527178928860       6.350220736819
       120    4        1.594861155651      11.174643148973       4.773883011283
       121    4        4.743766217570       7.978705808473      11.090618775989
       122    4        4.669835365300      11.144071980116      11.089508726502
       123    4        3.216666848375       9.520315010254       9.493950056549
       124    4        1.625326395637       1.574321624769      11.107291082828
       125    4        0.086325215136       3.126805856806       9.560738827770
       126    4        9.537965606845      -0.024041350096       3.111203005666
       127    4        7.957406221437      11.129594537714       7.883341342277
       128    4        9.461255896632       6.337159627060      -0.006066549238
