LAMMPS data file via write_data, version 29 Oct 2020, timestep = 0

128 atoms
1 atom types

0.0 11.3344 xlo xhi
0.0 11.3344 ylo yhi
0.0 11.3344 zlo zhi
0.0 0.0 0.0 xy xz yz

Masses

1 55.845

Atoms # atomic

2 1 1.41681910316264 1.4166892339434554 1.416752964302195 0 0 0
60 1 4.2504166641813415 9.917742359182954 4.250422357085517 0 0 0
4 1 1.4168550489254434 1.4168233988436787 4.250299760245101 0 0 0
3 1 4.454267858323533e-05 11.3343163481388 2.8336586157182815 0 -1 0
10 1 1.416829554764328 4.2502612388798875 1.4167264465259508 0 0 0
12 1 1.4168709627965268 4.250562533647088 4.250298413827017 0 0 0
13 1 0.0001172750209336499 2.833645953437708 5.667175424015499 0 0 0
18 1 1.416878619435328 7.083962053579568 1.416788749258982 0 0 0
20 1 1.4168304817388961 7.084011403168621 4.250457746550207 0 0 0
26 1 1.4167825074713751 9.917512489048056 1.4168604422920468 0 0 0
27 1 4.878130454869543e-05 8.500702859966752 2.8336854223811168 0 0 0
28 1 1.416767958329621 9.917636206826977 4.250466612095915 0 0 0
34 1 4.25035150102283 1.4167704720614849 1.4166201037380097 0 0 0
35 1 2.8336807804454196 1.9562009626862675e-05 2.8336433901770115 0 0 0
36 1 4.250437921373988 1.4169941064379727 4.250237619847809 0 0 0
58 1 4.250527356379364 9.91759563317392 1.4168553258410383 0 0 0
42 1 4.250354493192199 4.250375173809278 1.4167413903995978 0 0 0
43 1 2.833614153501262 2.8336675692817357 2.8334775552419647 0 0 0
44 1 4.250543612054283 4.25054054828655 4.250336553394438 0 0 0
59 1 2.833617836055843 8.500804679290543 2.8338041455507166 0 0 0
49 1 2.833622732854398 5.667028706345249 5.173720817682521e-05 0 0 0
50 1 4.250438541835914 7.0839767174548145 1.41695986894356 0 0 0
51 1 2.8336100264149957 5.66726839894974 2.833635769168546 0 0 0
52 1 4.250365242683655 7.084086842736617 4.2505749026093245 0 0 0
11 1 2.673747305107708e-07 2.8334905984282304 2.8336181161142724 0 0 0
57 1 2.8337916621662567 8.50078588760006 0.00019713605490526202 0 0 0
33 1 2.8335782564716654 11.334281971939822 9.497355232484495e-06 0 -1 0
73 1 5.66700562230781 2.8335363584160462 3.2492025360681964e-07 0 0 0
45 1 2.8337485297528993 2.8336858689246056 5.667093077574869 0 0 0
69 1 5.667045964549766 0.00010141079823495797 5.667154640463127 0 0 0
21 1 0.00010780466131680247 5.667266107541194 5.667137615787798 0 0 0
6 1 1.4166755259277615 1.4168713215347422 7.084000704555189 0 0 0
8 1 1.416677605699808 1.41675583701585 9.91753603703055 0 0 0
14 1 1.4168749304562158 4.25043629018694 7.083922578424215 0 0 0
16 1 1.416695644750902 4.2503896878796725 9.917579095833688 0 0 0
22 1 1.4168914290042303 7.084025052455365 7.084015353313912 0 0 0
23 1 0.00012767065113500055 5.667248824446961 8.50078048211381 0 0 0
24 1 1.4169788616267764 7.083852008513486 9.917635241601403 0 0 0
30 1 1.4166247382398316 9.917607528793342 7.084083903687 0 0 0
32 1 1.4167364525492805 9.917649358460736 9.91763438126699 0 0 0
25 1 0.0001127098516025387 8.500777734080108 11.334334402665123 0 0 -1
38 1 4.250261464104678 1.416701215625925 7.08387603581088 0 0 0
39 1 2.833416341215221 11.33437693485097 8.500706445378924 0 -1 0
40 1 4.250213938355523 1.4166580038849692 9.917448761203781 0 0 0
41 1 2.8334571938279858 2.8335664199023802 11.334246007339253 0 0 -1
46 1 4.250462243721801 4.250370809278862 7.0839573281317305 0 0 0
47 1 2.8334402729121835 2.8335532444626574 8.500728154858212 0 0 0
48 1 4.250448541824013 4.250331485345765 9.917560060569752 0 0 0
54 1 4.250476389403767 7.083982127175711 7.08410372908116 0 0 0
55 1 2.833851067313086 5.6671633648295305 8.500838027698993 0 0 0
56 1 4.250553689565023 7.083951828700742 9.917697005139656 0 0 0
95 1 5.667179375191495 8.50071114133973 8.500931403942039 0 0 0
62 1 4.250233788898151 9.917550392643435 7.084087559244522 0 0 0
63 1 2.833543263522792 8.500691767745472 8.500970449176009 0 0 0
64 1 4.250277561870874 9.917436164437387 9.917691480712836 0 0 0
53 1 2.833699225177271 5.667257370908101 5.667210318297677 0 0 0
79 1 5.66708927271607 2.833499081269367 8.50065101780205 0 0 0
71 1 5.667001380405449 11.33425538792836 8.500796609720048 0 -1 0
61 1 2.8334852571590865 8.501008732894618 5.66734449182899 0 0 0
93 1 5.667145686834542 8.500924130570038 5.667236941864663 0 0 0
17 1 1.7643448011861256e-05 5.667085518439129 11.334294552426554 0 0 -1
37 1 2.833453026635114 7.304966179290631e-05 5.667232209426348 0 0 0
5 1 11.334358569251503 11.334390324709121 5.667105982112487 -1 -1 0
124 1 9.917541587775752 9.917647679244055 4.250380958236865 0 0 0
19 1 11.334380977737675 5.6670388834203225 2.8335641994862066 -1 0 0
123 1 8.500882753749913 8.500840446170177 2.833550518248631 0 0 0
122 1 9.91766569598205 9.917587065156853 1.4167534390465442 0 0 0
89 1 5.667332132175627 8.500780334524931 4.2996124883797374e-05 0 0 0
81 1 5.66721586464594 5.667073081449698 4.909702312609713e-05 0 0 0
66 1 7.084021535273427 1.4167927183164648 1.4168614587945834 0 0 0
116 1 9.917681251647217 7.084012153617276 4.250345969618605 0 0 0
68 1 7.08404661615627 1.4169170840895167 4.250366125200693 0 0 0
74 1 7.083998734912988 4.250401172209249 1.416855135180882 0 0 0
75 1 5.667296561242692 2.8337579167808893 2.8335010842135366 0 0 0
76 1 7.0840571395313905 4.25046838813129 4.250521969805197 0 0 0
115 1 8.500801223314218 5.667192221839498 2.8335784381938827 0 0 0
82 1 7.084072355032345 7.0839856986628 1.4168042227947413 0 0 0
83 1 5.667219670536318 5.667316170573308 2.833758412552398 0 0 0
84 1 7.083999046082522 7.084039923997606 4.250456376617326 0 0 0
90 1 7.084027839134037 9.91761837266668 1.41672355350071 0 0 0
91 1 5.667238673903603 8.500893044221963 2.8336383615547605 0 0 0
92 1 7.084019524869617 9.917703668869633 4.2502717760853095 0 0 0
98 1 9.917585498283623 1.4166977815662167 1.4168298224240885 0 0 0
99 1 8.500881667614053 11.334351771596127 2.8335784487076037 0 -1 0
100 1 9.917581385333772 1.4167542860948095 4.250387196993841 0 0 0
101 1 8.500588973583062 4.559492500556269e-05 5.667150946208433 0 0 0
106 1 9.917537572150051 4.250326413978452 1.4167427730517514 0 0 0
107 1 8.50084322158851 2.8336381365996295 2.833639085142134 0 0 0
108 1 9.917673564482586 4.250501090352324 4.250442960403719 0 0 0
67 1 5.667275867520648 0.00013975571116589265 2.8335721519647272 0 0 0
114 1 9.917680659265958 7.083955533289693 1.4168553304486786 0 0 0
125 1 8.50071866476928 8.500810981235043 5.667174906894824 0 0 0
29 1 11.334305713032673 8.5009695661673 5.667159280836781 -1 0 0
105 1 8.500777189734285 2.833528024313705 0.0001265371800229545 0 0 0
9 1 11.334301211069155 2.8336468061490936 4.1411015518927744e-05 -1 0 0
1 1 11.334335267766766 11.334351867568179 11.334356442305934 -1 -1 -1
7 1 11.33414745171081 7.168652118253646e-05 8.500769147646622 -1 0 0
15 1 11.334324146123658 2.833685791617345 8.500795140134075 -1 0 0
31 1 11.334366307959167 8.500857147462735 8.500884774346297 -1 0 0
70 1 7.083882141857112 1.4168367563743558 7.084078439547855 0 0 0
72 1 7.083860344220675 1.416793513649598 9.91756502088845 0 0 0
78 1 7.084145506401097 4.2503295429795 7.08403003234181 0 0 0
80 1 7.084010706532343 4.250294417765449 9.917651430573006 0 0 0
85 1 5.667335980315899 5.667218689163452 5.66723204880517 0 0 0
86 1 7.084075813169965 7.0839973906805165 7.083945287900369 0 0 0
128 1 9.917488612993145 9.917639972989468 9.917524137189238 0 0 0
88 1 7.084086791884038 7.084001020251756 9.917618086567458 0 0 0
127 1 8.500854685909504 8.500797648599146 8.500749088078896 0 0 0
77 1 5.667249914721199 2.8336648861532843 5.667210730116509 0 0 0
94 1 7.083877241779659 9.917589777618717 7.083994601442158 0 0 0
126 1 9.917459106002903 9.917646937998665 7.083958310766023 0 0 0
96 1 7.083881535339733 9.917505114774547 9.917606918995947 0 0 0
97 1 8.50070208450119 11.334359611419556 11.334315552526444 0 -1 -1
120 1 9.917772372410472 7.084004117310411 9.917606324559841 0 0 0
102 1 9.917455600819807 1.4168336616758366 7.083973068205241 0 0 0
103 1 8.500577138224639 1.9615395505938693e-05 8.50071340598168 0 0 0
104 1 9.917502728341331 1.416823451289871 9.91760572866196 0 0 0
110 1 9.917617866336844 4.2504738280532255 7.0839827255875765 0 0 0
111 1 8.500734819103556 2.8336797554348707 8.500888542279204 0 0 0
112 1 9.917630478546577 4.250384957734999 9.917593628155409 0 0 0
119 1 8.500944061752458 5.667268656815101 8.500913488849614 0 0 0
118 1 9.917667282431673 7.084030496226428 7.0840352451787485 0 0 0
117 1 8.500939685008543 5.667179667903769 5.667208755493649 0 0 0
87 1 5.667452679989217 5.667060044993533 8.500832767645777 0 0 0
113 1 8.500755033314421 5.6672579203677484 11.334326085323463 0 0 -1
121 1 8.500954551867112 8.500740949097304 11.33439031289871 0 0 -1
65 1 5.667210382297021 11.33426019535771 11.334296368254988 0 -1 -1
109 1 8.500886821216897 2.833614290714932 5.667245022253973 0 0 0

Velocities

2 0.0 0.0 0.0
60 0.0 0.0 0.0
4 0.0 0.0 0.0
3 0.0 0.0 0.0
10 0.0 0.0 0.0
12 0.0 0.0 0.0
13 0.0 0.0 0.0
18 0.0 0.0 0.0
20 0.0 0.0 0.0
26 0.0 0.0 0.0
27 0.0 0.0 0.0
28 0.0 0.0 0.0
34 0.0 0.0 0.0
35 0.0 0.0 0.0
36 0.0 0.0 0.0
58 0.0 0.0 0.0
42 0.0 0.0 0.0
43 0.0 0.0 0.0
44 0.0 0.0 0.0
59 0.0 0.0 0.0
49 0.0 0.0 0.0
50 0.0 0.0 0.0
51 0.0 0.0 0.0
52 0.0 0.0 0.0
11 0.0 0.0 0.0
57 0.0 0.0 0.0
33 0.0 0.0 0.0
73 0.0 0.0 0.0
45 0.0 0.0 0.0
69 0.0 0.0 0.0
21 0.0 0.0 0.0
6 0.0 0.0 0.0
8 0.0 0.0 0.0
14 0.0 0.0 0.0
16 0.0 0.0 0.0
22 0.0 0.0 0.0
23 0.0 0.0 0.0
24 0.0 0.0 0.0
30 0.0 0.0 0.0
32 0.0 0.0 0.0
25 0.0 0.0 0.0
38 0.0 0.0 0.0
39 0.0 0.0 0.0
40 0.0 0.0 0.0
41 0.0 0.0 0.0
46 0.0 0.0 0.0
47 0.0 0.0 0.0
48 0.0 0.0 0.0
54 0.0 0.0 0.0
55 0.0 0.0 0.0
56 0.0 0.0 0.0
95 0.0 0.0 0.0
62 0.0 0.0 0.0
63 0.0 0.0 0.0
64 0.0 0.0 0.0
53 0.0 0.0 0.0
79 0.0 0.0 0.0
71 0.0 0.0 0.0
61 0.0 0.0 0.0
93 0.0 0.0 0.0
17 0.0 0.0 0.0
37 0.0 0.0 0.0
5 0.0 0.0 0.0
124 0.0 0.0 0.0
19 0.0 0.0 0.0
123 0.0 0.0 0.0
122 0.0 0.0 0.0
89 0.0 0.0 0.0
81 0.0 0.0 0.0
66 0.0 0.0 0.0
116 0.0 0.0 0.0
68 0.0 0.0 0.0
74 0.0 0.0 0.0
75 0.0 0.0 0.0
76 0.0 0.0 0.0
115 0.0 0.0 0.0
82 0.0 0.0 0.0
83 0.0 0.0 0.0
84 0.0 0.0 0.0
90 0.0 0.0 0.0
91 0.0 0.0 0.0
92 0.0 0.0 0.0
98 0.0 0.0 0.0
99 0.0 0.0 0.0
100 0.0 0.0 0.0
101 0.0 0.0 0.0
106 0.0 0.0 0.0
107 0.0 0.0 0.0
108 0.0 0.0 0.0
67 0.0 0.0 0.0
114 0.0 0.0 0.0
125 0.0 0.0 0.0
29 0.0 0.0 0.0
105 0.0 0.0 0.0
9 0.0 0.0 0.0
1 0.0 0.0 0.0
7 0.0 0.0 0.0
15 0.0 0.0 0.0
31 0.0 0.0 0.0
70 0.0 0.0 0.0
72 0.0 0.0 0.0
78 0.0 0.0 0.0
80 0.0 0.0 0.0
85 0.0 0.0 0.0
86 0.0 0.0 0.0
128 0.0 0.0 0.0
88 0.0 0.0 0.0
127 0.0 0.0 0.0
77 0.0 0.0 0.0
94 0.0 0.0 0.0
126 0.0 0.0 0.0
96 0.0 0.0 0.0
97 0.0 0.0 0.0
120 0.0 0.0 0.0
102 0.0 0.0 0.0
103 0.0 0.0 0.0
104 0.0 0.0 0.0
110 0.0 0.0 0.0
111 0.0 0.0 0.0
112 0.0 0.0 0.0
119 0.0 0.0 0.0
118 0.0 0.0 0.0
117 0.0 0.0 0.0
87 0.0 0.0 0.0
113 0.0 0.0 0.0
121 0.0 0.0 0.0
65 0.0 0.0 0.0
109 0.0 0.0 0.0
